[Molden Format]
[Atoms] Angs
 C   1  6     -3.2289702      1.4084465      0.0179218
 N   2  7     -1.8168123      1.5526529     -0.0305073
 C   3  6     -1.3128632      0.2873246      0.0009305
 C   4  6     -3.5501020      0.0188846      0.0723554
 C   5  6     -2.2823394     -0.7378608      0.0463772
 C   6  6      0.0014462      0.0699154      0.0204989
 C   7  6      0.9709226      1.0951017     -0.0249209
 N   8  7      0.5053960     -1.1954124      0.0519460
 C   9  6      2.2386864      0.3383578     -0.0508749
 C  10  6      1.9175550     -1.0512046      0.0035484
 C  11  6      2.8867319     -2.0381866     -0.0139603
 C  12  6      3.5758851      0.7111783     -0.1472184
 C  13  6      4.5567022     -0.2770410     -0.1738043
 C  14  6      4.2165061     -1.6274889     -0.1028234
 C  15  6     -4.1981454      2.3954300      0.0354498
 C  16  6     -4.8872993     -0.3539335      0.1687295
 C  17  6     -5.8681144      0.6342873      0.1953353
 C  18  6     -5.5279181      1.9847346      0.1243439
 C  19  6     -0.9699138      2.6865929     -0.0828656
 C  20  6      0.5063271      2.3993158     -0.0586889
 C  21  6     -1.8177436     -2.0420751      0.0801577
 C  22  6     -0.3415018     -2.3293521      0.1043097
 C  23  6      1.4017800      3.5763282     -0.0349537
 C  24  6      1.2897185      4.5984182     -0.9854359
 C  25  6      2.3799986      3.6923185      0.9600276
 C  26  6      2.1511522      5.6872641     -0.9557333
 C  27  6      3.1260007      5.7870843      0.0328144
 C  28  6      3.2337154      4.7885142      0.9953095
 C  29  6     -2.7131963     -3.2190876      0.0564634
 C  30  6     -2.6011077     -4.2411674      1.0069538
 C  31  6     -3.6914411     -3.3350915     -0.9384909
 C  32  6     -4.5451574     -4.4312886     -0.9737373
 C  33  6     -4.4374163     -5.4298472     -0.0112333
 C  34  6     -3.4625411     -5.3300145      0.9772869
 O  35  8      0.1359961     -3.4523035      0.1535877
 O  36  8     -1.4474115      3.8095464     -0.1320938
 H  37  1      3.8492556      1.7554587     -0.2015844
 H  38  1      5.5980541      0.0089752     -0.2501493
 H  39  1      2.6066075     -3.0799315      0.0327788
 H  40  1      4.9979532     -2.3769441     -0.1201974
 H  41  1     -6.3093638      2.7341908      0.1417331
 H  42  1     -3.9180206      3.4371743     -0.0112985
 H  43  1     -5.1606705     -1.3982133      0.2231032
 H  44  1     -6.9094650      0.3482726      0.2717034
 H  45  1      0.5234107      4.5386641     -1.7455635
 H  46  1      2.0559287      6.4649471     -1.7036603
 H  47  1      3.7901373      6.6423809      0.0585190
 H  48  1      2.4567887      2.9267481      1.7222663
 H  49  1      3.9773219      4.8656439      1.7793298
 H  50  1     -3.7682513     -2.5695311     -1.7007376
 H  51  1     -5.2887842     -4.5084284     -1.7577374
 H  52  1     -5.1015523     -6.2851450     -0.0369102
 H  53  1     -1.8347791     -4.1814042      1.7670597
 H  54  1     -3.3672962     -6.1076888      1.7252202
 C  55  6     -2.7289702      1.6084465      3.0179218
 N  56  7     -1.3168123      1.7526529      2.9694927
 C  57  6     -0.8128632      0.4873246      3.0009305
 C  58  6     -3.0501020      0.2188846      3.0723554
 C  59  6     -1.7823394     -0.5378608      3.0463772
 C  60  6      0.5014462      0.2699154      3.0204989
 C  61  6      1.4709226      1.2951017      2.9750791
 N  62  7      1.0053960     -0.9954124      3.0519460
 C  63  6      2.7386864      0.5383578      2.9491251
 C  64  6      2.4175550     -0.8512046      3.0035484
 C  65  6      3.3867319     -1.8381866      2.9860397
 C  66  6      4.0758851      0.9111783      2.8527816
 C  67  6      5.0567022     -0.0770410      2.8261957
 C  68  6      4.7165061     -1.4274889      2.8971766
 C  69  6     -3.6981454      2.5954300      3.0354498
 C  70  6     -4.3872993     -0.1539335      3.1687295
 C  71  6     -5.3681144      0.8342873      3.1953353
 C  72  6     -5.0279181      2.1847346      3.1243439
 C  73  6     -0.4699138      2.8865929      2.9171344
 C  74  6      1.0063271      2.5993158      2.9413111
 C  75  6     -1.3177436     -1.8420751      3.0801577
 C  76  6      0.1584982     -2.1293521      3.1043097
 C  77  6      1.9017800      3.7763282      2.9650463
 C  78  6      1.7897185      4.7984182      2.0145641
 C  79  6      2.8799986      3.8923185      3.9600276
 C  80  6      2.6511522      5.8872641      2.0442667
 C  81  6      3.6260007      5.9870843      3.0328144
 C  82  6      3.7337154      4.9885142      3.9953095
 C  83  6     -2.2131963     -3.0190876      3.0564634
 C  84  6     -2.1011077     -4.0411674      4.0069538
 C  85  6     -3.1914411     -3.1350915      2.0615091
 C  86  6     -4.0451574     -4.2312886      2.0262627
 C  87  6     -3.9374163     -5.2298472      2.9887667
 C  88  6     -2.9625411     -5.1300145      3.9772869
 O  89  8      0.6359961     -3.2523035      3.1535877
 O  90  8     -0.9474115      4.0095464      2.8679062
 H  91  1      4.3492556      1.9554587      2.7984156
 H  92  1      6.0980541      0.2089752      2.7498507
 H  93  1      3.1066075     -2.8799315      3.0327788
 H  94  1      5.4979532     -2.1769441      2.8798026
 H  95  1     -5.8093638      2.9341908      3.1417331
 H  96  1     -3.4180206      3.6371743      2.9887015
 H  97  1     -4.6606705     -1.1982133      3.2231032
 H  98  1     -6.4094650      0.5482726      3.2717034
 H  99  1      1.0234107      4.7386641      1.2544365
 H 100  1      2.5559287      6.6649471      1.2963397
 H 101  1      4.2901373      6.8423809      3.0585190
 H 102  1      2.9567887      3.1267481      4.7222663
 H 103  1      4.4773219      5.0656439      4.7793298
 H 104  1     -3.2682513     -2.3695311      1.2992624
 H 105  1     -4.7887842     -4.3084284      1.2422626
 H 106  1     -4.6015523     -6.0851450      2.9630898
 H 107  1     -1.3347791     -3.9814042      4.7670597
 H 108  1     -2.8672962     -5.9076888      4.7252202
[GTO]
   1  0
P   3  1.0
       20.9642000000        0.0402487000
        4.8033100000        0.2375940000
        1.4593300000        0.8158540000
P   1  1.0
        0.4834560000        1.0000000000
P   1  1.0
        0.1455850000        1.0000000000
 
   2  0
P   3  1.0
       30.6331000000        0.0383119000
        7.0261400000        0.2374030000
        2.1120500000        0.8175920000
P   1  1.0
        0.6840090000        1.0000000000
P   1  1.0
        0.2008780000        1.0000000000
 
   3  0
P   3  1.0
       20.9642000000        0.0402487000
        4.8033100000        0.2375940000
        1.4593300000        0.8158540000
P   1  1.0
        0.4834560000        1.0000000000
P   1  1.0
        0.1455850000        1.0000000000
 
   4  0
P   3  1.0
       20.9642000000        0.0402487000
        4.8033100000        0.2375940000
        1.4593300000        0.8158540000
P   1  1.0
        0.4834560000        1.0000000000
P   1  1.0
        0.1455850000        1.0000000000
 
   5  0
P   3  1.0
       20.9642000000        0.0402487000
        4.8033100000        0.2375940000
        1.4593300000        0.8158540000
P   1  1.0
        0.4834560000        1.0000000000
P   1  1.0
        0.1455850000        1.0000000000
 
   6  0
P   3  1.0
       20.9642000000        0.0402487000
        4.8033100000        0.2375940000
        1.4593300000        0.8158540000
P   1  1.0
        0.4834560000        1.0000000000
P   1  1.0
        0.1455850000        1.0000000000
 
   7  0
P   3  1.0
       20.9642000000        0.0402487000
        4.8033100000        0.2375940000
        1.4593300000        0.8158540000
P   1  1.0
        0.4834560000        1.0000000000
P   1  1.0
        0.1455850000        1.0000000000
 
   8  0
P   3  1.0
       30.6331000000        0.0383119000
        7.0261400000        0.2374030000
        2.1120500000        0.8175920000
P   1  1.0
        0.6840090000        1.0000000000
P   1  1.0
        0.2008780000        1.0000000000
 
   9  0
P   3  1.0
       20.9642000000        0.0402487000
        4.8033100000        0.2375940000
        1.4593300000        0.8158540000
P   1  1.0
        0.4834560000        1.0000000000
P   1  1.0
        0.1455850000        1.0000000000
 
  10  0
P   3  1.0
       20.9642000000        0.0402487000
        4.8033100000        0.2375940000
        1.4593300000        0.8158540000
P   1  1.0
        0.4834560000        1.0000000000
P   1  1.0
        0.1455850000        1.0000000000
 
  11  0
P   3  1.0
       20.9642000000        0.0402487000
        4.8033100000        0.2375940000
        1.4593300000        0.8158540000
P   1  1.0
        0.4834560000        1.0000000000
P   1  1.0
        0.1455850000        1.0000000000
 
  12  0
P   3  1.0
       20.9642000000        0.0402487000
        4.8033100000        0.2375940000
        1.4593300000        0.8158540000
P   1  1.0
        0.4834560000        1.0000000000
P   1  1.0
        0.1455850000        1.0000000000
 
  13  0
P   3  1.0
       20.9642000000        0.0402487000
        4.8033100000        0.2375940000
        1.4593300000        0.8158540000
P   1  1.0
        0.4834560000        1.0000000000
P   1  1.0
        0.1455850000        1.0000000000
 
  14  0
P   3  1.0
       20.9642000000        0.0402487000
        4.8033100000        0.2375940000
        1.4593300000        0.8158540000
P   1  1.0
        0.4834560000        1.0000000000
P   1  1.0
        0.1455850000        1.0000000000
 
  15  0
P   3  1.0
       20.9642000000        0.0402487000
        4.8033100000        0.2375940000
        1.4593300000        0.8158540000
P   1  1.0
        0.4834560000        1.0000000000
P   1  1.0
        0.1455850000        1.0000000000
 
  16  0
P   3  1.0
       20.9642000000        0.0402487000
        4.8033100000        0.2375940000
        1.4593300000        0.8158540000
P   1  1.0
        0.4834560000        1.0000000000
P   1  1.0
        0.1455850000        1.0000000000
 
  17  0
P   3  1.0
       20.9642000000        0.0402487000
        4.8033100000        0.2375940000
        1.4593300000        0.8158540000
P   1  1.0
        0.4834560000        1.0000000000
P   1  1.0
        0.1455850000        1.0000000000
 
  18  0
P   3  1.0
       20.9642000000        0.0402487000
        4.8033100000        0.2375940000
        1.4593300000        0.8158540000
P   1  1.0
        0.4834560000        1.0000000000
P   1  1.0
        0.1455850000        1.0000000000
 
  19  0
P   3  1.0
       20.9642000000        0.0402487000
        4.8033100000        0.2375940000
        1.4593300000        0.8158540000
P   1  1.0
        0.4834560000        1.0000000000
P   1  1.0
        0.1455850000        1.0000000000
 
  20  0
P   3  1.0
       20.9642000000        0.0402487000
        4.8033100000        0.2375940000
        1.4593300000        0.8158540000
P   1  1.0
        0.4834560000        1.0000000000
P   1  1.0
        0.1455850000        1.0000000000
 
  21  0
P   3  1.0
       20.9642000000        0.0402487000
        4.8033100000        0.2375940000
        1.4593300000        0.8158540000
P   1  1.0
        0.4834560000        1.0000000000
P   1  1.0
        0.1455850000        1.0000000000
 
  22  0
P   3  1.0
       20.9642000000        0.0402487000
        4.8033100000        0.2375940000
        1.4593300000        0.8158540000
P   1  1.0
        0.4834560000        1.0000000000
P   1  1.0
        0.1455850000        1.0000000000
 
  23  0
P   3  1.0
       20.9642000000        0.0402487000
        4.8033100000        0.2375940000
        1.4593300000        0.8158540000
P   1  1.0
        0.4834560000        1.0000000000
P   1  1.0
        0.1455850000        1.0000000000
P   3  1.0
       20.9642000000        0.0402487000
        4.8033100000        0.2375940000
        1.4593300000        0.8158540000
P   1  1.0
        0.4834560000        1.0000000000
P   1  1.0
        0.1455850000        1.0000000000
P   3  1.0
       20.9642000000        0.0402487000
        4.8033100000        0.2375940000
        1.4593300000        0.8158540000
P   1  1.0
        0.4834560000        1.0000000000
P   1  1.0
        0.1455850000        1.0000000000
 
  24  0
P   3  1.0
       20.9642000000        0.0402487000
        4.8033100000        0.2375940000
        1.4593300000        0.8158540000
P   1  1.0
        0.4834560000        1.0000000000
P   1  1.0
        0.1455850000        1.0000000000
P   3  1.0
       20.9642000000        0.0402487000
        4.8033100000        0.2375940000
        1.4593300000        0.8158540000
P   1  1.0
        0.4834560000        1.0000000000
P   1  1.0
        0.1455850000        1.0000000000
 
  25  0
P   3  1.0
       20.9642000000        0.0402487000
        4.8033100000        0.2375940000
        1.4593300000        0.8158540000
P   1  1.0
        0.4834560000        1.0000000000
P   1  1.0
        0.1455850000        1.0000000000
 
  26  0
 
  27  0
P   3  1.0
       20.9642000000        0.0402487000
        4.8033100000        0.2375940000
        1.4593300000        0.8158540000
P   1  1.0
        0.4834560000        1.0000000000
P   1  1.0
        0.1455850000        1.0000000000
P   3  1.0
       20.9642000000        0.0402487000
        4.8033100000        0.2375940000
        1.4593300000        0.8158540000
P   1  1.0
        0.4834560000        1.0000000000
P   1  1.0
        0.1455850000        1.0000000000
P   3  1.0
       20.9642000000        0.0402487000
        4.8033100000        0.2375940000
        1.4593300000        0.8158540000
P   1  1.0
        0.4834560000        1.0000000000
P   1  1.0
        0.1455850000        1.0000000000
 
  28  0
P   3  1.0
       20.9642000000        0.0402487000
        4.8033100000        0.2375940000
        1.4593300000        0.8158540000
P   1  1.0
        0.4834560000        1.0000000000
P   1  1.0
        0.1455850000        1.0000000000
 
  29  0
P   3  1.0
       20.9642000000        0.0402487000
        4.8033100000        0.2375940000
        1.4593300000        0.8158540000
P   1  1.0
        0.4834560000        1.0000000000
P   1  1.0
        0.1455850000        1.0000000000
P   3  1.0
       20.9642000000        0.0402487000
        4.8033100000        0.2375940000
        1.4593300000        0.8158540000
P   1  1.0
        0.4834560000        1.0000000000
P   1  1.0
        0.1455850000        1.0000000000
P   3  1.0
       20.9642000000        0.0402487000
        4.8033100000        0.2375940000
        1.4593300000        0.8158540000
P   1  1.0
        0.4834560000        1.0000000000
P   1  1.0
        0.1455850000        1.0000000000
 
  30  0
P   3  1.0
       20.9642000000        0.0402487000
        4.8033100000        0.2375940000
        1.4593300000        0.8158540000
P   1  1.0
        0.4834560000        1.0000000000
P   1  1.0
        0.1455850000        1.0000000000
P   3  1.0
       20.9642000000        0.0402487000
        4.8033100000        0.2375940000
        1.4593300000        0.8158540000
P   1  1.0
        0.4834560000        1.0000000000
P   1  1.0
        0.1455850000        1.0000000000
 
  31  0
P   3  1.0
       20.9642000000        0.0402487000
        4.8033100000        0.2375940000
        1.4593300000        0.8158540000
P   1  1.0
        0.4834560000        1.0000000000
P   1  1.0
        0.1455850000        1.0000000000
 
  32  0
P   3  1.0
       20.9642000000        0.0402487000
        4.8033100000        0.2375940000
        1.4593300000        0.8158540000
P   1  1.0
        0.4834560000        1.0000000000
P   1  1.0
        0.1455850000        1.0000000000
 
  33  0
P   3  1.0
       20.9642000000        0.0402487000
        4.8033100000        0.2375940000
        1.4593300000        0.8158540000
P   1  1.0
        0.4834560000        1.0000000000
P   1  1.0
        0.1455850000        1.0000000000
P   3  1.0
       20.9642000000        0.0402487000
        4.8033100000        0.2375940000
        1.4593300000        0.8158540000
P   1  1.0
        0.4834560000        1.0000000000
P   1  1.0
        0.1455850000        1.0000000000
P   3  1.0
       20.9642000000        0.0402487000
        4.8033100000        0.2375940000
        1.4593300000        0.8158540000
P   1  1.0
        0.4834560000        1.0000000000
P   1  1.0
        0.1455850000        1.0000000000
 
  34  0
 
  35  0
P   3  1.0
       42.1175000000        0.0365114000
        9.6283700000        0.2371530000
        2.8533200000        0.8197020000
P   1  1.0
        0.9056610000        1.0000000000
P   1  1.0
        0.2556110000        1.0000000000
 
  36  0
P   3  1.0
       42.1175000000        0.0365114000
        9.6283700000        0.2371530000
        2.8533200000        0.8197020000
P   1  1.0
        0.9056610000        1.0000000000
P   1  1.0
        0.2556110000        1.0000000000
 
  37  0
 
  38  0
 
  39  0
 
  40  0
 
  41  0
 
  42  0
 
  43  0
 
  44  0
 
  45  0
 
  46  0
 
  47  0
 
  48  0
 
  49  0
 
  50  0
 
  51  0
 
  52  0
 
  53  0
 
  54  0
 
  55  0
P   3  1.0
       20.9642000000        0.0402487000
        4.8033100000        0.2375940000
        1.4593300000        0.8158540000
P   1  1.0
        0.4834560000        1.0000000000
P   1  1.0
        0.1455850000        1.0000000000
 
  56  0
P   3  1.0
       30.6331000000        0.0383119000
        7.0261400000        0.2374030000
        2.1120500000        0.8175920000
P   1  1.0
        0.6840090000        1.0000000000
P   1  1.0
        0.2008780000        1.0000000000
 
  57  0
P   3  1.0
       20.9642000000        0.0402487000
        4.8033100000        0.2375940000
        1.4593300000        0.8158540000
P   1  1.0
        0.4834560000        1.0000000000
P   1  1.0
        0.1455850000        1.0000000000
 
  58  0
P   3  1.0
       20.9642000000        0.0402487000
        4.8033100000        0.2375940000
        1.4593300000        0.8158540000
P   1  1.0
        0.4834560000        1.0000000000
P   1  1.0
        0.1455850000        1.0000000000
 
  59  0
P   3  1.0
       20.9642000000        0.0402487000
        4.8033100000        0.2375940000
        1.4593300000        0.8158540000
P   1  1.0
        0.4834560000        1.0000000000
P   1  1.0
        0.1455850000        1.0000000000
 
  60  0
P   3  1.0
       20.9642000000        0.0402487000
        4.8033100000        0.2375940000
        1.4593300000        0.8158540000
P   1  1.0
        0.4834560000        1.0000000000
P   1  1.0
        0.1455850000        1.0000000000
 
  61  0
P   3  1.0
       20.9642000000        0.0402487000
        4.8033100000        0.2375940000
        1.4593300000        0.8158540000
P   1  1.0
        0.4834560000        1.0000000000
P   1  1.0
        0.1455850000        1.0000000000
 
  62  0
P   3  1.0
       30.6331000000        0.0383119000
        7.0261400000        0.2374030000
        2.1120500000        0.8175920000
P   1  1.0
        0.6840090000        1.0000000000
P   1  1.0
        0.2008780000        1.0000000000
 
  63  0
P   3  1.0
       20.9642000000        0.0402487000
        4.8033100000        0.2375940000
        1.4593300000        0.8158540000
P   1  1.0
        0.4834560000        1.0000000000
P   1  1.0
        0.1455850000        1.0000000000
 
  64  0
P   3  1.0
       20.9642000000        0.0402487000
        4.8033100000        0.2375940000
        1.4593300000        0.8158540000
P   1  1.0
        0.4834560000        1.0000000000
P   1  1.0
        0.1455850000        1.0000000000
 
  65  0
P   3  1.0
       20.9642000000        0.0402487000
        4.8033100000        0.2375940000
        1.4593300000        0.8158540000
P   1  1.0
        0.4834560000        1.0000000000
P   1  1.0
        0.1455850000        1.0000000000
 
  66  0
P   3  1.0
       20.9642000000        0.0402487000
        4.8033100000        0.2375940000
        1.4593300000        0.8158540000
P   1  1.0
        0.4834560000        1.0000000000
P   1  1.0
        0.1455850000        1.0000000000
 
  67  0
P   3  1.0
       20.9642000000        0.0402487000
        4.8033100000        0.2375940000
        1.4593300000        0.8158540000
P   1  1.0
        0.4834560000        1.0000000000
P   1  1.0
        0.1455850000        1.0000000000
 
  68  0
P   3  1.0
       20.9642000000        0.0402487000
        4.8033100000        0.2375940000
        1.4593300000        0.8158540000
P   1  1.0
        0.4834560000        1.0000000000
P   1  1.0
        0.1455850000        1.0000000000
 
  69  0
P   3  1.0
       20.9642000000        0.0402487000
        4.8033100000        0.2375940000
        1.4593300000        0.8158540000
P   1  1.0
        0.4834560000        1.0000000000
P   1  1.0
        0.1455850000        1.0000000000
 
  70  0
P   3  1.0
       20.9642000000        0.0402487000
        4.8033100000        0.2375940000
        1.4593300000        0.8158540000
P   1  1.0
        0.4834560000        1.0000000000
P   1  1.0
        0.1455850000        1.0000000000
 
  71  0
P   3  1.0
       20.9642000000        0.0402487000
        4.8033100000        0.2375940000
        1.4593300000        0.8158540000
P   1  1.0
        0.4834560000        1.0000000000
P   1  1.0
        0.1455850000        1.0000000000
 
  72  0
P   3  1.0
       20.9642000000        0.0402487000
        4.8033100000        0.2375940000
        1.4593300000        0.8158540000
P   1  1.0
        0.4834560000        1.0000000000
P   1  1.0
        0.1455850000        1.0000000000
 
  73  0
P   3  1.0
       20.9642000000        0.0402487000
        4.8033100000        0.2375940000
        1.4593300000        0.8158540000
P   1  1.0
        0.4834560000        1.0000000000
P   1  1.0
        0.1455850000        1.0000000000
 
  74  0
P   3  1.0
       20.9642000000        0.0402487000
        4.8033100000        0.2375940000
        1.4593300000        0.8158540000
P   1  1.0
        0.4834560000        1.0000000000
P   1  1.0
        0.1455850000        1.0000000000
 
  75  0
P   3  1.0
       20.9642000000        0.0402487000
        4.8033100000        0.2375940000
        1.4593300000        0.8158540000
P   1  1.0
        0.4834560000        1.0000000000
P   1  1.0
        0.1455850000        1.0000000000
 
  76  0
P   3  1.0
       20.9642000000        0.0402487000
        4.8033100000        0.2375940000
        1.4593300000        0.8158540000
P   1  1.0
        0.4834560000        1.0000000000
P   1  1.0
        0.1455850000        1.0000000000
 
  77  0
P   3  1.0
       20.9642000000        0.0402487000
        4.8033100000        0.2375940000
        1.4593300000        0.8158540000
P   1  1.0
        0.4834560000        1.0000000000
P   1  1.0
        0.1455850000        1.0000000000
P   3  1.0
       20.9642000000        0.0402487000
        4.8033100000        0.2375940000
        1.4593300000        0.8158540000
P   1  1.0
        0.4834560000        1.0000000000
P   1  1.0
        0.1455850000        1.0000000000
P   3  1.0
       20.9642000000        0.0402487000
        4.8033100000        0.2375940000
        1.4593300000        0.8158540000
P   1  1.0
        0.4834560000        1.0000000000
P   1  1.0
        0.1455850000        1.0000000000
 
  78  0
P   3  1.0
       20.9642000000        0.0402487000
        4.8033100000        0.2375940000
        1.4593300000        0.8158540000
P   1  1.0
        0.4834560000        1.0000000000
P   1  1.0
        0.1455850000        1.0000000000
P   3  1.0
       20.9642000000        0.0402487000
        4.8033100000        0.2375940000
        1.4593300000        0.8158540000
P   1  1.0
        0.4834560000        1.0000000000
P   1  1.0
        0.1455850000        1.0000000000
 
  79  0
P   3  1.0
       20.9642000000        0.0402487000
        4.8033100000        0.2375940000
        1.4593300000        0.8158540000
P   1  1.0
        0.4834560000        1.0000000000
P   1  1.0
        0.1455850000        1.0000000000
 
  80  0
 
  81  0
P   3  1.0
       20.9642000000        0.0402487000
        4.8033100000        0.2375940000
        1.4593300000        0.8158540000
P   1  1.0
        0.4834560000        1.0000000000
P   1  1.0
        0.1455850000        1.0000000000
P   3  1.0
       20.9642000000        0.0402487000
        4.8033100000        0.2375940000
        1.4593300000        0.8158540000
P   1  1.0
        0.4834560000        1.0000000000
P   1  1.0
        0.1455850000        1.0000000000
P   3  1.0
       20.9642000000        0.0402487000
        4.8033100000        0.2375940000
        1.4593300000        0.8158540000
P   1  1.0
        0.4834560000        1.0000000000
P   1  1.0
        0.1455850000        1.0000000000
 
  82  0
P   3  1.0
       20.9642000000        0.0402487000
        4.8033100000        0.2375940000
        1.4593300000        0.8158540000
P   1  1.0
        0.4834560000        1.0000000000
P   1  1.0
        0.1455850000        1.0000000000
 
  83  0
P   3  1.0
       20.9642000000        0.0402487000
        4.8033100000        0.2375940000
        1.4593300000        0.8158540000
P   1  1.0
        0.4834560000        1.0000000000
P   1  1.0
        0.1455850000        1.0000000000
P   3  1.0
       20.9642000000        0.0402487000
        4.8033100000        0.2375940000
        1.4593300000        0.8158540000
P   1  1.0
        0.4834560000        1.0000000000
P   1  1.0
        0.1455850000        1.0000000000
P   3  1.0
       20.9642000000        0.0402487000
        4.8033100000        0.2375940000
        1.4593300000        0.8158540000
P   1  1.0
        0.4834560000        1.0000000000
P   1  1.0
        0.1455850000        1.0000000000
 
  84  0
P   3  1.0
       20.9642000000        0.0402487000
        4.8033100000        0.2375940000
        1.4593300000        0.8158540000
P   1  1.0
        0.4834560000        1.0000000000
P   1  1.0
        0.1455850000        1.0000000000
P   3  1.0
       20.9642000000        0.0402487000
        4.8033100000        0.2375940000
        1.4593300000        0.8158540000
P   1  1.0
        0.4834560000        1.0000000000
P   1  1.0
        0.1455850000        1.0000000000
 
  85  0
P   3  1.0
       20.9642000000        0.0402487000
        4.8033100000        0.2375940000
        1.4593300000        0.8158540000
P   1  1.0
        0.4834560000        1.0000000000
P   1  1.0
        0.1455850000        1.0000000000
 
  86  0
P   3  1.0
       20.9642000000        0.0402487000
        4.8033100000        0.2375940000
        1.4593300000        0.8158540000
P   1  1.0
        0.4834560000        1.0000000000
P   1  1.0
        0.1455850000        1.0000000000
 
  87  0
P   3  1.0
       20.9642000000        0.0402487000
        4.8033100000        0.2375940000
        1.4593300000        0.8158540000
P   1  1.0
        0.4834560000        1.0000000000
P   1  1.0
        0.1455850000        1.0000000000
P   3  1.0
       20.9642000000        0.0402487000
        4.8033100000        0.2375940000
        1.4593300000        0.8158540000
P   1  1.0
        0.4834560000        1.0000000000
P   1  1.0
        0.1455850000        1.0000000000
P   3  1.0
       20.9642000000        0.0402487000
        4.8033100000        0.2375940000
        1.4593300000        0.8158540000
P   1  1.0
        0.4834560000        1.0000000000
P   1  1.0
        0.1455850000        1.0000000000
 
  88  0
 
  89  0
P   3  1.0
       42.1175000000        0.0365114000
        9.6283700000        0.2371530000
        2.8533200000        0.8197020000
P   1  1.0
        0.9056610000        1.0000000000
P   1  1.0
        0.2556110000        1.0000000000
 
  90  0
P   3  1.0
       42.1175000000        0.0365114000
        9.6283700000        0.2371530000
        2.8533200000        0.8197020000
P   1  1.0
        0.9056610000        1.0000000000
P   1  1.0
        0.2556110000        1.0000000000
 
  91  0
 
  92  0
 
  93  0
 
  94  0
 
  95  0
 
  96  0
 
  97  0
 
  98  0
 
  99  0
 
 100  0
 
 101  0
 
 102  0
 
 103  0
 
 104  0
 
 105  0
 
 106  0
 
 107  0
 
 108  0
 
[MO]
Sym=A
Ene= 0.0
Spin=Alpha
Occup=2.0
  1     -0.0002460
  2     -0.0001886
  3      0.0265337
  4     -0.0005330
  5     -0.0002706
  6      0.0445972
  7      0.0056659
  8      0.0034028
  9      0.0350366
 10      0.0001922
 11      0.0002135
 12     -0.0656513
 13      0.0013024
 14      0.0016440
 15     -0.1053837
 16     -0.0033306
 17     -0.0048251
 18     -0.1088424
 19     -0.0000926
 20     -0.0010189
 21      0.1008701
 22     -0.0001544
 23     -0.0016364
 24      0.1738287
 25      0.0017599
 26      0.0140792
 27      0.1277317
 28     -0.0005005
 29     -0.0003337
 30      0.0351700
 31     -0.0016350
 32     -0.0006674
 33      0.0607078
 34      0.0157164
 35      0.0043935
 36      0.0485507
 37      0.0001083
 38      0.0001624
 39     -0.0248925
 40      0.0003171
 41      0.0005490
 42     -0.0421216
 43     -0.0028844
 44     -0.0058616
 45     -0.0325018
 46     -0.0000926
 47     -0.0010189
 48      0.1008703
 49     -0.0001544
 50     -0.0016364
 51      0.1738291
 52      0.0017599
 53      0.0140792
 54      0.1277320
 55      0.0001083
 56      0.0001624
 57     -0.0248923
 58      0.0003171
 59      0.0005490
 60     -0.0421213
 61     -0.0028767
 62     -0.0058616
 63     -0.0325015
 64      0.0001921
 65      0.0002135
 66     -0.0656509
 67      0.0013023
 68      0.0016439
 69     -0.1053831
 70     -0.0033306
 71     -0.0048251
 72     -0.1088418
 73     -0.0005005
 74     -0.0003337
 75      0.0351699
 76     -0.0016350
 77     -0.0006674
 78      0.0607076
 79      0.0157052
 80      0.0043935
 81      0.0485505
 82     -0.0002460
 83     -0.0001886
 84      0.0265334
 85     -0.0005330
 86     -0.0002706
 87      0.0445968
 88      0.0056658
 89      0.0034028
 90      0.0350363
 91     -0.0004527
 92     -0.0002779
 93      0.0240859
 94     -0.0005956
 95     -0.0003494
 96      0.0442488
 97      0.0024221
 98      0.0014453
 99      0.0335201
100      0.0000639
101      0.0000268
102     -0.0026423
103      0.0000605